<?xml version="1.0" encoding="UTF-8"?>

<!-- generated on Mon  7 Sep 02:36:57 2015 by SUMO gui Version 0.22.0
<?xml version="1.0" encoding="UTF-8"?>

<configuration xmlns:xsi="http://www.w3.org/2001/XMLSchema-instance" xsi:noNamespaceSchemaLocation="http://sumo.dlr.de/xsd/sumo-gui.exeConfiguration.xsd">

    <input>
        <net-file value="simulation/SimpleT/simpleTnotshifted.net.xml"/>
        <route-files value="simulation/SimpleT/simpleT.rou.xml"/>
        <additional-files value="simulation/SimpleT/simpleT.det.xml"/>
    </input>

    <output>
        <save-state.prefix value="simulation/SimpleT/state"/>
    </output>

    <time>
        <begin value="0"/>
    </time>

    <report>
        <no-step-log value="true"/>
    </report>

    <emissions>
        <phemlight-path value="simulation/SimpleT/./PHEMlight/"/>
    </emissions>

    <traci_server>
        <remote-port value="8813"/>
    </traci_server>

</configuration>
-->

<detector xmlns:xsi="http://www.w3.org/2001/XMLSchema-instance" xsi:noNamespaceSchemaLocation="http://sumo.dlr.de/xsd/det_e1_file.xsd">
   <interval begin="0.00" end="30.00" id="0" nVehContrib="0" flow="0.00" occupancy="0.00" speed="-1.00" length="-1.00" nVehEntered="0"/>
   <interval begin="0.00" end="30.00" id="1" nVehContrib="0" flow="0.00" occupancy="0.00" speed="-1.00" length="-1.00" nVehEntered="0"/>
   <interval begin="0.00" end="30.00" id="2" nVehContrib="0" flow="0.00" occupancy="0.00" speed="-1.00" length="-1.00" nVehEntered="0"/>
   <interval begin="0.00" end="30.00" id="3" nVehContrib="0" flow="0.00" occupancy="0.00" speed="-1.00" length="-1.00" nVehEntered="0"/>
   <interval begin="0.00" end="30.00" id="4" nVehContrib="0" flow="0.00" occupancy="0.00" speed="-1.00" length="-1.00" nVehEntered="0"/>
   <interval begin="0.00" end="30.00" id="5" nVehContrib="0" flow="0.00" occupancy="0.00" speed="-1.00" length="-1.00" nVehEntered="0"/>
   <interval begin="0.00" end="30.00" id="6" nVehContrib="0" flow="0.00" occupancy="0.00" speed="-1.00" length="-1.00" nVehEntered="0"/>
   <interval begin="0.00" end="30.00" id="7" nVehContrib="0" flow="0.00" occupancy="0.00" speed="-1.00" length="-1.00" nVehEntered="0"/>
   <interval begin="0.00" end="30.00" id="8" nVehContrib="0" flow="0.00" occupancy="0.00" speed="-1.00" length="-1.00" nVehEntered="0"/>
   <interval begin="0.00" end="30.00" id="9" nVehContrib="0" flow="0.00" occupancy="0.00" speed="-1.00" length="-1.00" nVehEntered="0"/>
   <interval begin="0.00" end="30.00" id="10" nVehContrib="0" flow="0.00" occupancy="0.00" speed="-1.00" length="-1.00" nVehEntered="0"/>
   <interval begin="30.00" end="60.00" id="0" nVehContrib="1" flow="120.00" occupancy="1.21" speed="13.72" length="5.00" nVehEntered="1"/>
   <interval begin="30.00" end="60.00" id="1" nVehContrib="1" flow="120.00" occupancy="1.21" speed="13.73" length="5.00" nVehEntered="1"/>
   <interval begin="30.00" end="60.00" id="2" nVehContrib="1" flow="120.00" occupancy="1.38" speed="12.08" length="5.00" nVehEntered="1"/>
   <interval begin="30.00" end="60.00" id="3" nVehContrib="1" flow="120.00" occupancy="1.37" speed="12.15" length="5.00" nVehEntered="1"/>
   <interval begin="30.00" end="60.00" id="4" nVehContrib="1" flow="120.00" occupancy="2.57" speed="6.48" length="5.00" nVehEntered="1"/>
   <interval begin="30.00" end="60.00" id="5" nVehContrib="0" flow="0.00" occupancy="0.00" speed="-1.00" length="-1.00" nVehEntered="0"/>
   <interval begin="30.00" end="60.00" id="6" nVehContrib="0" flow="0.00" occupancy="0.00" speed="-1.00" length="-1.00" nVehEntered="0"/>
   <interval begin="30.00" end="60.00" id="7" nVehContrib="1" flow="120.00" occupancy="1.48" speed="11.27" length="5.00" nVehEntered="1"/>
   <interval begin="30.00" end="60.00" id="8" nVehContrib="0" flow="0.00" occupancy="0.00" speed="-1.00" length="-1.00" nVehEntered="0"/>
   <interval begin="30.00" end="60.00" id="9" nVehContrib="0" flow="0.00" occupancy="0.00" speed="-1.00" length="-1.00" nVehEntered="0"/>
   <interval begin="30.00" end="60.00" id="10" nVehContrib="0" flow="0.00" occupancy="0.00" speed="-1.00" length="-1.00" nVehEntered="0"/>
   <interval begin="60.00" end="90.00" id="0" nVehContrib="0" flow="0.00" occupancy="0.00" speed="-1.00" length="-1.00" nVehEntered="0"/>
   <interval begin="60.00" end="90.00" id="1" nVehContrib="0" flow="0.00" occupancy="0.00" speed="-1.00" length="-1.00" nVehEntered="0"/>
   <interval begin="60.00" end="90.00" id="2" nVehContrib="0" flow="0.00" occupancy="0.00" speed="-1.00" length="-1.00" nVehEntered="0"/>
   <interval begin="60.00" end="90.00" id="3" nVehContrib="0" flow="0.00" occupancy="0.00" speed="-1.00" length="-1.00" nVehEntered="0"/>
   <interval begin="60.00" end="90.00" id="4" nVehContrib="0" flow="0.00" occupancy="0.00" speed="-1.00" length="-1.00" nVehEntered="0"/>
   <interval begin="60.00" end="90.00" id="5" nVehContrib="2" flow="240.00" occupancy="2.47" speed="13.49" length="5.00" nVehEntered="2"/>
   <interval begin="60.00" end="90.00" id="6" nVehContrib="0" flow="0.00" occupancy="0.00" speed="-1.00" length="-1.00" nVehEntered="0"/>
   <interval begin="60.00" end="90.00" id="7" nVehContrib="2" flow="240.00" occupancy="3.01" speed="11.08" length="5.00" nVehEntered="2"/>
   <interval begin="60.00" end="90.00" id="8" nVehContrib="0" flow="0.00" occupancy="0.00" speed="-1.00" length="-1.00" nVehEntered="0"/>
   <interval begin="60.00" end="90.00" id="9" nVehContrib="0" flow="0.00" occupancy="0.00" speed="-1.00" length="-1.00" nVehEntered="0"/>
   <interval begin="60.00" end="90.00" id="10" nVehContrib="0" flow="0.00" occupancy="0.00" speed="-1.00" length="-1.00" nVehEntered="0"/>
   <interval begin="90.00" end="120.00" id="0" nVehContrib="0" flow="0.00" occupancy="0.00" speed="-1.00" length="-1.00" nVehEntered="0"/>
   <interval begin="90.00" end="120.00" id="1" nVehContrib="0" flow="0.00" occupancy="0.00" speed="-1.00" length="-1.00" nVehEntered="0"/>
   <interval begin="90.00" end="120.00" id="2" nVehContrib="1" flow="120.00" occupancy="1.43" speed="11.67" length="5.00" nVehEntered="1"/>
   <interval begin="90.00" end="120.00" id="3" nVehContrib="0" flow="0.00" occupancy="0.00" speed="-1.00" length="-1.00" nVehEntered="0"/>
   <interval begin="90.00" end="120.00" id="4" nVehContrib="0" flow="0.00" occupancy="0.00" speed="-1.00" length="-1.00" nVehEntered="0"/>
   <interval begin="90.00" end="120.00" id="5" nVehContrib="2" flow="240.00" occupancy="2.46" speed="13.57" length="5.00" nVehEntered="2"/>
   <interval begin="90.00" end="120.00" id="6" nVehContrib="0" flow="0.00" occupancy="0.00" speed="-1.00" length="-1.00" nVehEntered="0"/>
   <interval begin="90.00" end="120.00" id="7" nVehContrib="1" flow="120.00" occupancy="1.44" speed="11.61" length="5.00" nVehEntered="1"/>
   <interval begin="90.00" end="120.00" id="8" nVehContrib="0" flow="0.00" occupancy="0.00" speed="-1.00" length="-1.00" nVehEntered="0"/>
   <interval begin="90.00" end="120.00" id="9" nVehContrib="0" flow="0.00" occupancy="0.00" speed="-1.00" length="-1.00" nVehEntered="0"/>
   <interval begin="90.00" end="120.00" id="10" nVehContrib="0" flow="0.00" occupancy="0.00" speed="-1.00" length="-1.00" nVehEntered="0"/>
   <interval begin="120.00" end="150.00" id="0" nVehContrib="1" flow="120.00" occupancy="1.22" speed="13.62" length="5.00" nVehEntered="1"/>
   <interval begin="120.00" end="150.00" id="1" nVehContrib="0" flow="0.00" occupancy="0.00" speed="-1.00" length="-1.00" nVehEntered="0"/>
   <interval begin="120.00" end="150.00" id="2" nVehContrib="0" flow="0.00" occupancy="0.00" speed="-1.00" length="-1.00" nVehEntered="0"/>
   <interval begin="120.00" end="150.00" id="3" nVehContrib="0" flow="0.00" occupancy="0.00" speed="-1.00" length="-1.00" nVehEntered="0"/>
   <interval begin="120.00" end="150.00" id="4" nVehContrib="0" flow="0.00" occupancy="0.00" speed="-1.00" length="-1.00" nVehEntered="0"/>
   <interval begin="120.00" end="150.00" id="5" nVehContrib="0" flow="0.00" occupancy="0.00" speed="-1.00" length="-1.00" nVehEntered="0"/>
   <interval begin="120.00" end="150.00" id="6" nVehContrib="0" flow="0.00" occupancy="0.00" speed="-1.00" length="-1.00" nVehEntered="0"/>
   <interval begin="120.00" end="150.00" id="7" nVehContrib="0" flow="0.00" occupancy="0.00" speed="-1.00" length="-1.00" nVehEntered="0"/>
   <interval begin="120.00" end="150.00" id="8" nVehContrib="0" flow="0.00" occupancy="0.00" speed="-1.00" length="-1.00" nVehEntered="0"/>
   <interval begin="120.00" end="150.00" id="9" nVehContrib="1" flow="120.00" occupancy="1.23" speed="13.51" length="5.00" nVehEntered="1"/>
   <interval begin="120.00" end="150.00" id="10" nVehContrib="1" flow="120.00" occupancy="1.44" speed="11.59" length="5.00" nVehEntered="1"/>
   <interval begin="150.00" end="180.00" id="0" nVehContrib="1" flow="120.00" occupancy="1.23" speed="13.56" length="5.00" nVehEntered="1"/>
   <interval begin="150.00" end="180.00" id="1" nVehContrib="0" flow="0.00" occupancy="0.00" speed="-1.00" length="-1.00" nVehEntered="0"/>
   <interval begin="150.00" end="180.00" id="2" nVehContrib="1" flow="120.00" occupancy="1.44" speed="11.59" length="5.00" nVehEntered="1"/>
   <interval begin="150.00" end="180.00" id="3" nVehContrib="0" flow="0.00" occupancy="0.00" speed="-1.00" length="-1.00" nVehEntered="0"/>
   <interval begin="150.00" end="180.00" id="4" nVehContrib="0" flow="0.00" occupancy="0.00" speed="-1.00" length="-1.00" nVehEntered="0"/>
   <interval begin="150.00" end="180.00" id="5" nVehContrib="0" flow="0.00" occupancy="0.00" speed="-1.00" length="-1.00" nVehEntered="0"/>
   <interval begin="150.00" end="180.00" id="6" nVehContrib="0" flow="0.00" occupancy="0.00" speed="-1.00" length="-1.00" nVehEntered="0"/>
   <interval begin="150.00" end="180.00" id="7" nVehContrib="0" flow="0.00" occupancy="0.00" speed="-1.00" length="-1.00" nVehEntered="0"/>
   <interval begin="150.00" end="180.00" id="8" nVehContrib="0" flow="0.00" occupancy="0.00" speed="-1.00" length="-1.00" nVehEntered="0"/>
   <interval begin="150.00" end="180.00" id="9" nVehContrib="0" flow="0.00" occupancy="0.00" speed="-1.00" length="-1.00" nVehEntered="0"/>
   <interval begin="150.00" end="180.00" id="10" nVehContrib="0" flow="0.00" occupancy="0.00" speed="-1.00" length="-1.00" nVehEntered="0"/>
   <interval begin="180.00" end="210.00" id="0" nVehContrib="0" flow="0.00" occupancy="0.00" speed="-1.00" length="-1.00" nVehEntered="0"/>
   <interval begin="180.00" end="210.00" id="1" nVehContrib="0" flow="0.00" occupancy="0.00" speed="-1.00" length="-1.00" nVehEntered="0"/>
   <interval begin="180.00" end="210.00" id="2" nVehContrib="0" flow="0.00" occupancy="0.00" speed="-1.00" length="-1.00" nVehEntered="0"/>
   <interval begin="180.00" end="210.00" id="3" nVehContrib="1" flow="120.00" occupancy="1.41" speed="11.80" length="5.00" nVehEntered="1"/>
   <interval begin="180.00" end="210.00" id="4" nVehContrib="0" flow="0.00" occupancy="0.00" speed="-1.00" length="-1.00" nVehEntered="0"/>
   <interval begin="180.00" end="210.00" id="5" nVehContrib="2" flow="240.00" occupancy="2.44" speed="13.67" length="5.00" nVehEntered="2"/>
   <interval begin="180.00" end="210.00" id="6" nVehContrib="0" flow="0.00" occupancy="0.00" speed="-1.00" length="-1.00" nVehEntered="0"/>
   <interval begin="180.00" end="210.00" id="7" nVehContrib="2" flow="240.00" occupancy="2.97" speed="11.22" length="5.00" nVehEntered="2"/>
   <interval begin="180.00" end="210.00" id="8" nVehContrib="0" flow="0.00" occupancy="0.00" speed="-1.00" length="-1.00" nVehEntered="0"/>
   <interval begin="180.00" end="210.00" id="9" nVehContrib="1" flow="120.00" occupancy="1.23" speed="13.58" length="5.00" nVehEntered="1"/>
   <interval begin="180.00" end="210.00" id="10" nVehContrib="1" flow="120.00" occupancy="1.44" speed="11.60" length="5.00" nVehEntered="1"/>
   <interval begin="210.00" end="240.00" id="0" nVehContrib="2" flow="240.00" occupancy="2.46" speed="13.56" length="5.00" nVehEntered="2"/>
   <interval begin="210.00" end="240.00" id="1" nVehContrib="1" flow="120.00" occupancy="1.20" speed="13.88" length="5.00" nVehEntered="1"/>
   <interval begin="210.00" end="240.00" id="2" nVehContrib="2" flow="240.00" occupancy="2.85" speed="11.72" length="5.00" nVehEntered="2"/>
   <interval begin="210.00" end="240.00" id="3" nVehContrib="0" flow="0.00" occupancy="0.00" speed="-1.00" length="-1.00" nVehEntered="0"/>
   <interval begin="210.00" end="240.00" id="4" nVehContrib="1" flow="120.00" occupancy="1.56" speed="10.66" length="5.00" nVehEntered="1"/>
   <interval begin="210.00" end="240.00" id="5" nVehContrib="1" flow="120.00" occupancy="2.28" speed="13.58" length="5.00" nVehEntered="1"/>
   <interval begin="210.00" end="240.00" id="6" nVehContrib="0" flow="0.00" occupancy="0.00" speed="-1.00" length="-1.00" nVehEntered="0"/>
   <interval begin="210.00" end="240.00" id="7" nVehContrib="2" flow="240.00" occupancy="3.00" speed="11.12" length="5.00" nVehEntered="2"/>
   <interval begin="210.00" end="240.00" id="8" nVehContrib="0" flow="0.00" occupancy="0.00" speed="-1.00" length="-1.00" nVehEntered="0"/>
   <interval begin="210.00" end="240.00" id="9" nVehContrib="0" flow="0.00" occupancy="0.00" speed="-1.00" length="-1.00" nVehEntered="0"/>
   <interval begin="210.00" end="240.00" id="10" nVehContrib="0" flow="0.00" occupancy="0.00" speed="-1.00" length="-1.00" nVehEntered="0"/>
   <interval begin="240.00" end="270.00" id="0" nVehContrib="0" flow="0.00" occupancy="0.00" speed="-1.00" length="-1.00" nVehEntered="0"/>
   <interval begin="240.00" end="270.00" id="1" nVehContrib="0" flow="0.00" occupancy="0.00" speed="-1.00" length="-1.00" nVehEntered="0"/>
   <interval begin="240.00" end="270.00" id="2" nVehContrib="0" flow="0.00" occupancy="0.00" speed="-1.00" length="-1.00" nVehEntered="0"/>
   <interval begin="240.00" end="270.00" id="3" nVehContrib="0" flow="0.00" occupancy="0.00" speed="-1.00" length="-1.00" nVehEntered="0"/>
   <interval begin="240.00" end="270.00" id="4" nVehContrib="0" flow="0.00" occupancy="0.00" speed="-1.00" length="-1.00" nVehEntered="0"/>
   <interval begin="240.00" end="270.00" id="5" nVehContrib="2" flow="240.00" occupancy="1.38" speed="13.69" length="5.00" nVehEntered="2"/>
   <interval begin="240.00" end="270.00" id="6" nVehContrib="0" flow="0.00" occupancy="0.00" speed="-1.00" length="-1.00" nVehEntered="0"/>
   <interval begin="240.00" end="270.00" id="7" nVehContrib="1" flow="120.00" occupancy="1.54" speed="10.81" length="5.00" nVehEntered="1"/>
   <interval begin="240.00" end="270.00" id="8" nVehContrib="0" flow="0.00" occupancy="0.00" speed="-1.00" length="-1.00" nVehEntered="0"/>
   <interval begin="240.00" end="270.00" id="9" nVehContrib="0" flow="0.00" occupancy="0.00" speed="-1.00" length="-1.00" nVehEntered="0"/>
   <interval begin="240.00" end="270.00" id="10" nVehContrib="0" flow="0.00" occupancy="0.00" speed="-1.00" length="-1.00" nVehEntered="0"/>
   <interval begin="270.00" end="300.00" id="0" nVehContrib="0" flow="0.00" occupancy="0.00" speed="-1.00" length="-1.00" nVehEntered="0"/>
   <interval begin="270.00" end="300.00" id="1" nVehContrib="1" flow="120.00" occupancy="1.23" speed="13.56" length="5.00" nVehEntered="1"/>
   <interval begin="270.00" end="300.00" id="2" nVehContrib="0" flow="0.00" occupancy="0.00" speed="-1.00" length="-1.00" nVehEntered="0"/>
   <interval begin="270.00" end="300.00" id="3" nVehContrib="1" flow="120.00" occupancy="1.37" speed="12.12" length="5.00" nVehEntered="1"/>
   <interval begin="270.00" end="300.00" id="4" nVehContrib="1" flow="120.00" occupancy="2.24" speed="7.43" length="5.00" nVehEntered="1"/>
   <interval begin="270.00" end="300.00" id="5" nVehContrib="2" flow="240.00" occupancy="2.45" speed="13.60" length="5.00" nVehEntered="2"/>
   <interval begin="270.00" end="300.00" id="6" nVehContrib="0" flow="0.00" occupancy="0.00" speed="-1.00" length="-1.00" nVehEntered="0"/>
   <interval begin="270.00" end="300.00" id="7" nVehContrib="2" flow="240.00" occupancy="2.91" speed="11.47" length="5.00" nVehEntered="2"/>
   <interval begin="270.00" end="300.00" id="8" nVehContrib="0" flow="0.00" occupancy="0.00" speed="-1.00" length="-1.00" nVehEntered="0"/>
   <interval begin="270.00" end="300.00" id="9" nVehContrib="1" flow="120.00" occupancy="1.22" speed="13.63" length="5.00" nVehEntered="1"/>
   <interval begin="270.00" end="300.00" id="10" nVehContrib="1" flow="120.00" occupancy="1.41" speed="11.80" length="5.00" nVehEntered="1"/>
   <interval begin="300.00" end="330.00" id="0" nVehContrib="2" flow="240.00" occupancy="2.46" speed="13.58" length="5.00" nVehEntered="2"/>
   <interval begin="300.00" end="330.00" id="1" nVehContrib="0" flow="0.00" occupancy="0.00" speed="-1.00" length="-1.00" nVehEntered="0"/>
   <interval begin="300.00" end="330.00" id="2" nVehContrib="2" flow="240.00" occupancy="2.95" speed="11.33" length="5.00" nVehEntered="2"/>
   <interval begin="300.00" end="330.00" id="3" nVehContrib="0" flow="0.00" occupancy="0.00" speed="-1.00" length="-1.00" nVehEntered="0"/>
   <interval begin="300.00" end="330.00" id="4" nVehContrib="0" flow="0.00" occupancy="0.00" speed="-1.00" length="-1.00" nVehEntered="0"/>
   <interval begin="300.00" end="330.00" id="5" nVehContrib="2" flow="240.00" occupancy="2.49" speed="13.38" length="5.00" nVehEntered="2"/>
   <interval begin="300.00" end="330.00" id="6" nVehContrib="0" flow="0.00" occupancy="0.00" speed="-1.00" length="-1.00" nVehEntered="0"/>
   <interval begin="300.00" end="330.00" id="7" nVehContrib="3" flow="360.00" occupancy="4.62" speed="10.83" length="5.00" nVehEntered="3"/>
   <interval begin="300.00" end="330.00" id="8" nVehContrib="0" flow="0.00" occupancy="0.00" speed="-1.00" length="-1.00" nVehEntered="0"/>
   <interval begin="300.00" end="330.00" id="9" nVehContrib="0" flow="0.00" occupancy="0.00" speed="-1.00" length="-1.00" nVehEntered="0"/>
   <interval begin="300.00" end="330.00" id="10" nVehContrib="0" flow="0.00" occupancy="0.00" speed="-1.00" length="-1.00" nVehEntered="0"/>
   <interval begin="330.00" end="360.00" id="0" nVehContrib="1" flow="120.00" occupancy="1.21" speed="13.81" length="5.00" nVehEntered="1"/>
   <interval begin="330.00" end="360.00" id="1" nVehContrib="1" flow="120.00" occupancy="1.22" speed="13.62" length="5.00" nVehEntered="1"/>
   <interval begin="330.00" end="360.00" id="2" nVehContrib="1" flow="120.00" occupancy="1.35" speed="12.37" length="5.00" nVehEntered="1"/>
   <interval begin="330.00" end="360.00" id="3" nVehContrib="1" flow="120.00" occupancy="1.44" speed="11.60" length="5.00" nVehEntered="1"/>
   <interval begin="330.00" end="360.00" id="4" nVehContrib="1" flow="120.00" occupancy="3.03" speed="5.49" length="5.00" nVehEntered="1"/>
   <interval begin="330.00" end="360.00" id="5" nVehContrib="2" flow="240.00" occupancy="2.43" speed="13.71" length="5.00" nVehEntered="2"/>
   <interval begin="330.00" end="360.00" id="6" nVehContrib="0" flow="0.00" occupancy="0.00" speed="-1.00" length="-1.00" nVehEntered="0"/>
   <interval begin="330.00" end="360.00" id="7" nVehContrib="1" flow="120.00" occupancy="1.48" speed="11.29" length="5.00" nVehEntered="1"/>
   <interval begin="330.00" end="360.00" id="8" nVehContrib="0" flow="0.00" occupancy="0.00" speed="-1.00" length="-1.00" nVehEntered="0"/>
   <interval begin="330.00" end="360.00" id="9" nVehContrib="0" flow="0.00" occupancy="0.00" speed="-1.00" length="-1.00" nVehEntered="0"/>
   <interval begin="330.00" end="360.00" id="10" nVehContrib="0" flow="0.00" occupancy="0.00" speed="-1.00" length="-1.00" nVehEntered="0"/>
   <interval begin="360.00" end="390.00" id="0" nVehContrib="1" flow="120.00" occupancy="1.22" speed="13.67" length="5.00" nVehEntered="1"/>
   <interval begin="360.00" end="390.00" id="1" nVehContrib="1" flow="120.00" occupancy="1.23" speed="13.56" length="5.00" nVehEntered="1"/>
   <interval begin="360.00" end="390.00" id="2" nVehContrib="1" flow="120.00" occupancy="1.37" speed="12.17" length="5.00" nVehEntered="1"/>
   <interval begin="360.00" end="390.00" id="3" nVehContrib="1" flow="120.00" occupancy="1.39" speed="11.99" length="5.00" nVehEntered="1"/>
   <interval begin="360.00" end="390.00" id="4" nVehContrib="1" flow="120.00" occupancy="-6.01" speed="5000.00" length="5.00" nVehEntered="1"/>
   <interval begin="360.00" end="390.00" id="5" nVehContrib="0" flow="0.00" occupancy="0.00" speed="-1.00" length="-1.00" nVehEntered="0"/>
   <interval begin="360.00" end="390.00" id="6" nVehContrib="0" flow="0.00" occupancy="0.00" speed="-1.00" length="-1.00" nVehEntered="0"/>
   <interval begin="360.00" end="390.00" id="7" nVehContrib="0" flow="0.00" occupancy="0.00" speed="-1.00" length="-1.00" nVehEntered="0"/>
   <interval begin="360.00" end="390.00" id="8" nVehContrib="0" flow="0.00" occupancy="0.00" speed="-1.00" length="-1.00" nVehEntered="0"/>
   <interval begin="360.00" end="390.00" id="9" nVehContrib="0" flow="0.00" occupancy="0.00" speed="-1.00" length="-1.00" nVehEntered="0"/>
   <interval begin="360.00" end="390.00" id="10" nVehContrib="0" flow="0.00" occupancy="0.00" speed="-1.00" length="-1.00" nVehEntered="0"/>
   <interval begin="390.00" end="420.00" id="0" nVehContrib="1" flow="120.00" occupancy="1.23" speed="13.55" length="5.00" nVehEntered="1"/>
   <interval begin="390.00" end="420.00" id="1" nVehContrib="0" flow="0.00" occupancy="0.00" speed="-1.00" length="-1.00" nVehEntered="0"/>
   <interval begin="390.00" end="420.00" id="2" nVehContrib="1" flow="120.00" occupancy="1.35" speed="12.32" length="5.00" nVehEntered="1"/>
   <interval begin="390.00" end="420.00" id="3" nVehContrib="0" flow="0.00" occupancy="0.00" speed="-1.00" length="-1.00" nVehEntered="0"/>
   <interval begin="390.00" end="420.00" id="4" nVehContrib="0" flow="0.00" occupancy="0.00" speed="-1.00" length="-1.00" nVehEntered="0"/>
   <interval begin="390.00" end="420.00" id="5" nVehContrib="1" flow="120.00" occupancy="1.22" speed="13.67" length="5.00" nVehEntered="1"/>
   <interval begin="390.00" end="420.00" id="6" nVehContrib="0" flow="0.00" occupancy="0.00" speed="-1.00" length="-1.00" nVehEntered="0"/>
   <interval begin="390.00" end="420.00" id="7" nVehContrib="2" flow="240.00" occupancy="3.08" speed="10.81" length="5.00" nVehEntered="2"/>
   <interval begin="390.00" end="420.00" id="8" nVehContrib="0" flow="0.00" occupancy="0.00" speed="-1.00" length="-1.00" nVehEntered="0"/>
   <interval begin="390.00" end="420.00" id="9" nVehContrib="0" flow="0.00" occupancy="0.00" speed="-1.00" length="-1.00" nVehEntered="0"/>
   <interval begin="390.00" end="420.00" id="10" nVehContrib="0" flow="0.00" occupancy="0.00" speed="-1.00" length="-1.00" nVehEntered="0"/>
   <interval begin="420.00" end="450.00" id="0" nVehContrib="0" flow="0.00" occupancy="0.00" speed="-1.00" length="-1.00" nVehEntered="0"/>
   <interval begin="420.00" end="450.00" id="1" nVehContrib="0" flow="0.00" occupancy="0.00" speed="-1.00" length="-1.00" nVehEntered="0"/>
   <interval begin="420.00" end="450.00" id="2" nVehContrib="0" flow="0.00" occupancy="0.00" speed="-1.00" length="-1.00" nVehEntered="0"/>
   <interval begin="420.00" end="450.00" id="3" nVehContrib="0" flow="0.00" occupancy="0.00" speed="-1.00" length="-1.00" nVehEntered="0"/>
   <interval begin="420.00" end="450.00" id="4" nVehContrib="0" flow="0.00" occupancy="0.00" speed="-1.00" length="-1.00" nVehEntered="0"/>
   <interval begin="420.00" end="450.00" id="5" nVehContrib="2" flow="240.00" occupancy="2.47" speed="13.51" length="5.00" nVehEntered="2"/>
   <interval begin="420.00" end="450.00" id="6" nVehContrib="0" flow="0.00" occupancy="0.00" speed="-1.00" length="-1.00" nVehEntered="0"/>
   <interval begin="420.00" end="450.00" id="7" nVehContrib="2" flow="240.00" occupancy="3.06" speed="10.88" length="5.00" nVehEntered="2"/>
   <interval begin="420.00" end="450.00" id="8" nVehContrib="0" flow="0.00" occupancy="0.00" speed="-1.00" length="-1.00" nVehEntered="0"/>
   <interval begin="420.00" end="450.00" id="9" nVehContrib="0" flow="0.00" occupancy="0.00" speed="-1.00" length="-1.00" nVehEntered="0"/>
   <interval begin="420.00" end="450.00" id="10" nVehContrib="0" flow="0.00" occupancy="0.00" speed="-1.00" length="-1.00" nVehEntered="0"/>
   <interval begin="450.00" end="480.00" id="0" nVehContrib="0" flow="0.00" occupancy="0.00" speed="-1.00" length="-1.00" nVehEntered="0"/>
   <interval begin="450.00" end="480.00" id="1" nVehContrib="0" flow="0.00" occupancy="0.00" speed="-1.00" length="-1.00" nVehEntered="0"/>
   <interval begin="450.00" end="480.00" id="2" nVehContrib="0" flow="0.00" occupancy="0.00" speed="-1.00" length="-1.00" nVehEntered="0"/>
   <interval begin="450.00" end="480.00" id="3" nVehContrib="0" flow="0.00" occupancy="0.00" speed="-1.00" length="-1.00" nVehEntered="0"/>
   <interval begin="450.00" end="480.00" id="4" nVehContrib="0" flow="0.00" occupancy="0.00" speed="-1.00" length="-1.00" nVehEntered="0"/>
   <interval begin="450.00" end="480.00" id="5" nVehContrib="2" flow="240.00" occupancy="2.42" speed="13.76" length="5.00" nVehEntered="2"/>
   <interval begin="450.00" end="480.00" id="6" nVehContrib="0" flow="0.00" occupancy="0.00" speed="-1.00" length="-1.00" nVehEntered="0"/>
   <interval begin="450.00" end="480.00" id="7" nVehContrib="1" flow="120.00" occupancy="1.46" speed="11.39" length="5.00" nVehEntered="1"/>
   <interval begin="450.00" end="480.00" id="8" nVehContrib="0" flow="0.00" occupancy="0.00" speed="-1.00" length="-1.00" nVehEntered="0"/>
   <interval begin="450.00" end="480.00" id="9" nVehContrib="0" flow="0.00" occupancy="0.00" speed="-1.00" length="-1.00" nVehEntered="0"/>
   <interval begin="450.00" end="480.00" id="10" nVehContrib="0" flow="0.00" occupancy="0.00" speed="-1.00" length="-1.00" nVehEntered="0"/>
   <interval begin="480.00" end="510.00" id="0" nVehContrib="0" flow="0.00" occupancy="0.00" speed="-1.00" length="-1.00" nVehEntered="0"/>
   <interval begin="480.00" end="510.00" id="1" nVehContrib="0" flow="0.00" occupancy="0.00" speed="-1.00" length="-1.00" nVehEntered="0"/>
   <interval begin="480.00" end="510.00" id="2" nVehContrib="0" flow="0.00" occupancy="0.00" speed="-1.00" length="-1.00" nVehEntered="0"/>
   <interval begin="480.00" end="510.00" id="3" nVehContrib="0" flow="0.00" occupancy="0.00" speed="-1.00" length="-1.00" nVehEntered="0"/>
   <interval begin="480.00" end="510.00" id="4" nVehContrib="0" flow="0.00" occupancy="0.00" speed="-1.00" length="-1.00" nVehEntered="0"/>
   <interval begin="480.00" end="510.00" id="5" nVehContrib="0" flow="0.00" occupancy="0.00" speed="-1.00" length="-1.00" nVehEntered="0"/>
   <interval begin="480.00" end="510.00" id="6" nVehContrib="0" flow="0.00" occupancy="0.00" speed="-1.00" length="-1.00" nVehEntered="0"/>
   <interval begin="480.00" end="510.00" id="7" nVehContrib="0" flow="0.00" occupancy="0.00" speed="-1.00" length="-1.00" nVehEntered="0"/>
   <interval begin="480.00" end="510.00" id="8" nVehContrib="0" flow="0.00" occupancy="0.00" speed="-1.00" length="-1.00" nVehEntered="0"/>
   <interval begin="480.00" end="510.00" id="9" nVehContrib="0" flow="0.00" occupancy="0.00" speed="-1.00" length="-1.00" nVehEntered="0"/>
   <interval begin="480.00" end="510.00" id="10" nVehContrib="0" flow="0.00" occupancy="0.00" speed="-1.00" length="-1.00" nVehEntered="0"/>
   <interval begin="510.00" end="540.00" id="0" nVehContrib="0" flow="0.00" occupancy="0.00" speed="-1.00" length="-1.00" nVehEntered="0"/>
   <interval begin="510.00" end="540.00" id="1" nVehContrib="0" flow="0.00" occupancy="0.00" speed="-1.00" length="-1.00" nVehEntered="0"/>
   <interval begin="510.00" end="540.00" id="2" nVehContrib="0" flow="0.00" occupancy="0.00" speed="-1.00" length="-1.00" nVehEntered="0"/>
   <interval begin="510.00" end="540.00" id="3" nVehContrib="0" flow="0.00" occupancy="0.00" speed="-1.00" length="-1.00" nVehEntered="0"/>
   <interval begin="510.00" end="540.00" id="4" nVehContrib="0" flow="0.00" occupancy="0.00" speed="-1.00" length="-1.00" nVehEntered="0"/>
   <interval begin="510.00" end="540.00" id="5" nVehContrib="0" flow="0.00" occupancy="0.00" speed="-1.00" length="-1.00" nVehEntered="0"/>
   <interval begin="510.00" end="540.00" id="6" nVehContrib="0" flow="0.00" occupancy="0.00" speed="-1.00" length="-1.00" nVehEntered="0"/>
   <interval begin="510.00" end="540.00" id="7" nVehContrib="0" flow="0.00" occupancy="0.00" speed="-1.00" length="-1.00" nVehEntered="0"/>
   <interval begin="510.00" end="540.00" id="8" nVehContrib="0" flow="0.00" occupancy="0.00" speed="-1.00" length="-1.00" nVehEntered="0"/>
   <interval begin="510.00" end="540.00" id="9" nVehContrib="1" flow="120.00" occupancy="1.24" speed="13.40" length="5.00" nVehEntered="1"/>
   <interval begin="510.00" end="540.00" id="10" nVehContrib="1" flow="120.00" occupancy="1.45" speed="11.48" length="5.00" nVehEntered="1"/>
   <interval begin="540.00" end="570.00" id="0" nVehContrib="1" flow="120.00" occupancy="1.21" speed="13.73" length="5.00" nVehEntered="1"/>
   <interval begin="540.00" end="570.00" id="1" nVehContrib="0" flow="0.00" occupancy="0.00" speed="-1.00" length="-1.00" nVehEntered="0"/>
   <interval begin="540.00" end="570.00" id="2" nVehContrib="1" flow="120.00" occupancy="1.39" speed="12.02" length="5.00" nVehEntered="1"/>
   <interval begin="540.00" end="570.00" id="3" nVehContrib="0" flow="0.00" occupancy="0.00" speed="-1.00" length="-1.00" nVehEntered="0"/>
   <interval begin="540.00" end="570.00" id="4" nVehContrib="0" flow="0.00" occupancy="0.00" speed="-1.00" length="-1.00" nVehEntered="0"/>
   <interval begin="540.00" end="570.00" id="5" nVehContrib="0" flow="0.00" occupancy="0.00" speed="-1.00" length="-1.00" nVehEntered="0"/>
   <interval begin="540.00" end="570.00" id="6" nVehContrib="0" flow="0.00" occupancy="0.00" speed="-1.00" length="-1.00" nVehEntered="0"/>
   <interval begin="540.00" end="570.00" id="7" nVehContrib="0" flow="0.00" occupancy="0.00" speed="-1.00" length="-1.00" nVehEntered="0"/>